
Host: bolt.iprt.iastate.edu

Timers On : Thu Jan 21 11:16:30 2021
Timers Off: Thu Jan 21 11:16:47 2021

Wall Time:       17.86 seconds

                                                       Time (seconds)
Module                                       User      System        Wall        Calls

--------------------------------------------------------------------------------------

**************************************************************************************

Host: bolt.iprt.iastate.edu

Timers On : Thu Jan 21 11:17:05 2021
Timers Off: Thu Jan 21 11:17:23 2021

Wall Time:       18.58 seconds

                                                       Time (seconds)
Module                                       User      System        Wall        Calls

--------------------------------------------------------------------------------------

**************************************************************************************

Host: bolt.iprt.iastate.edu

Timers On : Thu Jan 21 11:17:56 2021
Timers Off: Thu Jan 21 11:18:51 2021

Wall Time:       55.12 seconds

                                                       Time (seconds)
Module                                       User      System        Wall        Calls

--------------------------------------------------------------------------------------

**************************************************************************************

Host: bolt.iprt.iastate.edu

Timers On : Thu Jan 21 11:19:03 2021
Timers Off: Thu Jan 21 11:19:44 2021

Wall Time:       41.60 seconds

                                                       Time (seconds)
Module                                       User      System        Wall        Calls

--------------------------------------------------------------------------------------

**************************************************************************************

Host: bolt.iprt.iastate.edu

Timers On : Thu Jan 21 11:19:52 2021
Timers Off: Thu Jan 21 11:26:55 2021

Wall Time:      422.52 seconds

                                                       Time (seconds)
Module                                       User      System        Wall        Calls

--------------------------------------------------------------------------------------

**************************************************************************************

Host: bolt.iprt.iastate.edu

Timers On : Thu Jan 21 11:35:24 2021
Timers Off: Thu Jan 21 11:35:27 2021

Wall Time:        2.84 seconds

                                                       Time (seconds)
Module                                       User      System        Wall        Calls

--------------------------------------------------------------------------------------

**************************************************************************************

Host: bolt.iprt.iastate.edu

Timers On : Thu Jan 21 12:40:35 2021
Timers Off: Thu Jan 21 12:40:39 2021

Wall Time:        3.28 seconds

                                                       Time (seconds)
Module                                       User      System        Wall        Calls

--------------------------------------------------------------------------------------

**************************************************************************************

Host: jlselogin2

Timers On : Sun Jan 24 06:22:54 2021
Timers Off: Sun Jan 24 06:22:58 2021

Wall Time:        3.75 seconds

                                                       Time (seconds)
Module                                       User      System        Wall        Calls

--------------------------------------------------------------------------------------

**************************************************************************************
