18
Lattice="15.0 0.0 0.0 0.0 15.0 0.0 0.0 0.0 15.0" Properties=species:S:1:pos:R:3:Z:I:1:forces:R:3 energy=-182.553177946 dipole="-8.44618312969e-06 -0.148284719199 -0.000344823647291" pbc="F F F"
O       6.41107400       6.98113527       7.50153528        8       0.00696457      -0.00242240      -0.00029722 
O       8.58890491       6.98113661       7.50155471        8      -0.00683817      -0.00237199      -0.00031940 
O       7.49999228       8.99273439       7.50048164        8      -0.00004888       0.00272665      -0.00131554 
C       5.12657866       7.67324656       7.50050593        6       0.02125041      -0.00791675       0.00039777 
C       9.87339214       7.67326459       7.50052055        6      -0.02109572      -0.00788546       0.00042631 
C       4.03436324       6.62280412       7.50050212        6       0.00719935       0.02827225       0.00029038 
C      10.96562395       6.62283700       7.50057313        6      -0.00720155       0.02823379       0.00023501 
C       7.49998869       7.78034564       7.50103519        6       0.00002428       0.02001216       0.00032450 
H       5.07458205       8.31139671       8.38483323        1       0.01830724       0.00525563      -0.00387480 
H       5.07545663       8.31036431       6.61534488        1       0.01801424       0.00504738       0.00454759 
H       9.92452108       8.31035589       6.61534048        1      -0.01801410       0.00500179       0.00450932 
H       9.92536586       8.31145461       8.38481702        1      -0.01830241       0.00526996      -0.00376199 
H       3.06384833       7.12321056       7.49968166        1       0.00007842      -0.00550416       0.00007601 
H       4.09226473       5.99072050       6.61268538        1       0.02615863      -0.00144267       0.02979818 
H       4.09139631       5.99164930       8.38903225        1       0.02539396      -0.00161570      -0.02906967 
H      11.93614728       7.12323036       7.49976917        1      -0.00020011      -0.00542227       0.00015294 
H      10.90856595       5.99169283       8.38910716        1      -0.02540784      -0.00161212      -0.02897467 
H      10.90774268       5.99073288       6.61276896        1      -0.02613465      -0.00144108       0.02981921 
